
Host: DESKTOP-6FBKV7T

Timers On : Thu Apr 30 13:17:18 2020
Timers Off: Thu Apr 30 13:25:41 2020

Wall Time:      503.63 seconds

                                                       Time (seconds)
Module                                       User      System        Wall        Calls

--------------------------------------------------------------------------------------

**************************************************************************************
